 Gaussian 16, Revision C.01,
 Gaussian 16:  ES64L-G16RevC.01  3-Jul-2019

 -----------------------------------------------
 #P B3LYP/Def2SVP EmpiricalDispersion=GD3BJ Freq
 -----------------------------------------------

 -----
 water
 -----
 Symbolic Z-matrix:
 Charge =  0 Multiplicity = 1

                         Standard orientation:
 ---------------------------------------------------------------------
 Center     Atomic      Atomic             Coordinates (Angstroms)
 Number     Number       Type             X           Y           Z
 ---------------------------------------------------------------------
      1          8           0        0.000000    0.000000    0.120234
      2          1           0        0.000000    0.757025   -0.480936
      3          1           0       -0.000000   -0.757025   -0.480936
 ---------------------------------------------------------------------

 SCF Done:  E(RB3LYP) =  -76.3588896844     A.U. after    9 cycles

 The electronic state is 1-A1.
 Alpha  occ. eigenvalues --  -19.11966  -0.97980  -0.51161  -0.36791  -0.29167
 Alpha virt. eigenvalues --    0.04480   0.12389   0.55509   0.62051   0.91734
 Alpha virt. eigenvalues --    0.92035   1.00686   1.09514   1.34768   1.39537
 Alpha virt. eigenvalues --    1.54218   1.78667   2.19879   2.24598   2.96049

 Mulliken charges:
               1
     1  O   -0.294496
     2  H    0.147248
     3  H    0.147248
 Sum of Mulliken charges =   0.00000

 Dipole moment (field-independent basis, Debye):
    X=             -0.0000    Y=              0.0000    Z=             -2.0046  Tot=              2.0046
 Quadrupole moment (field-independent basis, Debye-Ang):
   XX=             -7.0031   YY=             -4.3525   ZZ=             -5.9371
   XY=              0.0000   XZ=              0.0000   YZ=             -0.0000

  Exact polarizability:       3.113      -0.000       7.313      -0.000      -0.000       5.479
 Approx polarizability:       3.315       0.000       8.883       0.000      -0.000       6.819

                      1                      2                      3
                     A1                     A1                     B2
 Frequencies --   1638.9446              3791.9950              3887.0773
 Red. masses --      1.0817                 1.0460                 1.0805
 Frc consts  --      1.7120                 8.8620                 9.6184
 IR Inten    --     55.5027                 4.8996                27.0174

 - Thermochemistry -
 -------------------
 Temperature   298.150 Kelvin.  Pressure   1.00000 Atm.
 Atom     1 has atomic number  8 and mass  15.99491

 Molecular mass:    18.01056 amu.
 Principal axes and moments of inertia in atomic units:
                           1         2         3
     Eigenvalues --     2.31027   4.12509   6.43536
           X           -0.00000   0.00000   1.00000
           Y            1.00000   0.00000   0.00000
           Z           -0.00000   1.00000   0.00000
 This molecule is an asymmetric top.
 Rotational symmetry number  2.
 Rotational temperatures (Kelvin)     37.49088    20.99686    13.45907
 Rotational constants (GHZ):         781.18315   437.50359   280.44158
 Zero-point vibrational energy      55734.1 (Joules/Mol)
                                   13.32077 (Kcal/Mol)
 Vibrational temperatures:   2358.08  5455.83  5592.64
          (Kelvin)

 Zero-point correction=                           0.021228 (Hartree/Particle)
 Thermal correction to Energy=                    0.024063
 Thermal correction to Enthalpy=                  0.025007
 Thermal correction to Gibbs Free Energy=         0.003565
 Sum of electronic and zero-point Energies=            -76.337662
 Sum of electronic and thermal Energies=               -76.334826
 Sum of electronic and thermal Enthalpies=             -76.333882
 Sum of electronic and thermal Free Energies=          -76.355325

                     E (Thermal)             CV                S
                      KCal/Mol        Cal/Mol-Kelvin    Cal/Mol-Kelvin
 Total                   15.100              6.007             45.130
 Electronic               0.000              0.000              0.000
 Translational            0.889              2.981             34.608
 Rotational               0.889              2.981             10.515
 Vibrational             13.322              0.046              0.007

 Optimization completed.
    -- Stationary point found.
 Normal termination of Gaussian 16 at Mon Mar 24 13:56:36 2025.
