                         Program Version 5.0.4 -  RELEASE  -
|  1> # SMD for more accurate results
|  2> ! PBE0 D3BJ def2-SVP CPCM printbasis
|  3> ! numfreq
|  4>
|  5> %basis
|  6>   newgto O "def2-SVPD" end
|  7> end
|  8>
|  9> %cpcm
| 10>   smd true
| 11>   SMDsolvent "BENZENE"
| 12> end
| 13>
| 14> %pal
| 15>   nprocs 4
| 16> end
| 17>
| 18> %maxcore 1500
| 19>
| 20> * xyz 0 1
| 21> H      2.61425    0.18143    3.20847
| 22> C      2.10208    0.10732    2.24590
| 23> C      2.83723    0.11204    1.06061
| 24> H      3.92740    0.18442    1.09192
| 25> C      2.17690    0.02426   -0.16470
| 26> H      2.74833    0.02310   -1.09626
| 27> C      0.78670   -0.06380   -0.19941
| 28> H      0.29357   -0.14138   -1.17421
| 29> C      0.02339   -0.07507    0.97987
| 30> C      0.71279    0.01018    2.20077
| 31> H      0.15862    0.01821    3.14539
| 32> B     -1.54906   -0.17995    0.93604
| 33> O     -2.28150    0.16567   -0.16149
| 34> O     -2.28705   -0.62341    1.99393
| 35> H     -1.76116   -0.91553    2.74245
| 36> H     -1.75996    0.52773   -0.88196
| 37> *
| 38>
| 39>                          ****END OF INPUT****

CARTESIAN COORDINATES (ANGSTROEM)
---------------------------------
  H      2.614250    0.181430    3.208470
  C      2.102080    0.107320    2.245900
  C      2.837230    0.112040    1.060610
  H      3.927400    0.184420    1.091920
  C      2.176900    0.024260   -0.164700
  H      2.748330    0.023100   -1.096260
  C      0.786700   -0.063800   -0.199410
  H      0.293570   -0.141380   -1.174210
  C      0.023390   -0.075070    0.979870
  C      0.712790    0.010180    2.200770
  H      0.158620    0.018210    3.145390
  B     -1.549060   -0.179950    0.936040
  O     -2.281500    0.165670   -0.161490
  O     -2.287050   -0.623410    1.993930
  H     -1.761160   -0.915530    2.742450
  H     -1.759960    0.527730   -0.881960

 Total Charge           Charge          ....    0
 Multiplicity           Mult            ....    1
 Number of Electrons    NEL             ....   64
 Basis Dimension        Dim             ....  179

ORBITAL ENERGIES
----------------

  NO   OCC          E(Eh)            E(eV)
   0   2.0000     -19.224170      -523.1163
   1   2.0000     -19.224045      -523.1129
   2   2.0000     -10.248754      -278.8828
   3   2.0000     -10.248727      -278.8820
   4   2.0000     -10.247248      -278.8418
   5   2.0000     -10.244934      -278.7788
   6   2.0000     -10.244908      -278.7781
   7   2.0000     -10.232495      -278.4403
   8   2.0000      -6.825021      -185.7183
   9   2.0000      -1.053285       -28.6613
  10   2.0000      -1.023792       -27.8588
  11   2.0000      -0.879485       -23.9320
  12   2.0000      -0.767933       -20.8965
  13   2.0000      -0.767044       -20.8723
  14   2.0000      -0.623946       -16.9784
  15   2.0000      -0.622249       -16.9323
  16   2.0000      -0.607300       -16.5255
  17   2.0000      -0.545423       -14.8417
  18   2.0000      -0.510968       -13.9041
  19   2.0000      -0.475761       -12.9461
  20   2.0000      -0.474119       -12.9014
  21   2.0000      -0.453052       -12.3282
  22   2.0000      -0.438964       -11.9448
  23   2.0000      -0.417879       -11.3711
  24   2.0000      -0.398306       -10.8384
  25   2.0000      -0.387038       -10.5318
  26   2.0000      -0.386215       -10.5094
  27   2.0000      -0.358522        -9.7559
  28   2.0000      -0.340188        -9.2570
  29   2.0000      -0.327430        -8.9098
  30   2.0000      -0.275793        -7.5047
  31   2.0000      -0.275756        -7.5037
  32   0.0000      -0.032827        -0.8933
  33   0.0000      -0.013658        -0.3717
  34   0.0000       0.040833         1.1111
  35   0.0000       0.051795         1.4094
  36   0.0000       0.084172         2.2904

MULLIKEN ATOMIC CHARGES
-----------------------
   0 H :    0.037226
   1 C :   -0.020741
   2 C :   -0.026858
   3 H :    0.041867
   4 C :   -0.020832
   5 H :    0.037290
   6 C :   -0.081860
   7 H :    0.040945
   8 C :   -0.032935
   9 C :   -0.082118
  10 H :    0.041061
  11 B :    0.618189
  12 O :   -0.434652
  13 O :   -0.434327
  14 H :    0.158790
  15 H :    0.158954
Sum of atomic charges:   -0.0000000

LOEWDIN ATOMIC CHARGES
----------------------
   0 H :    0.041081
   1 C :   -0.033548
   2 C :   -0.023481
   3 H :    0.041758
   4 C :   -0.033539
   5 H :    0.041097
   6 C :    0.001656
   7 H :    0.050773
   8 C :    0.033585
   9 C :    0.001814
  10 H :    0.050898
  11 B :    0.247719
  12 O :   -0.380873
  13 O :   -0.381283
  14 H :    0.171118
  15 H :    0.171225

  Mayer bond orders larger than 0.100000
B(  0-H ,  1-C ) :   0.9879 B(  1-C ,  2-C ) :   1.3834 B(  1-C ,  9-C ) :   1.3958
B(  2-C ,  3-H ) :   0.9869 B(  2-C ,  4-C ) :   1.3834 B(  4-C ,  5-H ) :   0.9879
B(  4-C ,  6-C ) :   1.3957 B(  6-C ,  7-H ) :   0.9812 B(  6-C ,  8-C ) :   1.3486
B(  8-C ,  9-C ) :   1.3485 B(  8-C , 11-B ) :   0.8560 B(  9-C , 10-H ) :   0.9811
B( 11-B , 12-O ) :   1.1076 B( 11-B , 13-O ) :   1.1082 B( 12-O , 15-H ) :   0.9804
B( 13-O , 14-H ) :   0.9803

Dispersion correction           -0.013887052
FINAL SINGLE POINT ENERGY      -407.545701401517
Dispersion correction            ... done

DIPOLE MOMENT
-------------
                                X             Y             Z
Electronic contribution:     -4.55159      -0.30374      -0.13075
Nuclear contribution   :      5.97243       0.39856       0.16848
                        -----------------------------------------
Total Dipole Moment    :      1.42083       0.09482       0.03773
                        -----------------------------------------
Magnitude (a.u.)       :      1.42449
Magnitude (Debye)      :      3.62077

VIBRATIONAL FREQUENCIES
-----------------------

Scaling factor for frequencies =  1.000000000 (already applied!)

   0:         0.00 cm**-1
   1:         0.00 cm**-1
   2:         0.00 cm**-1
   3:         0.00 cm**-1
   4:         0.00 cm**-1
   5:         0.00 cm**-1
   6:        44.78 cm**-1
   7:       129.25 cm**-1
   8:       163.91 cm**-1
   9:       328.70 cm**-1
  10:       383.39 cm**-1
  11:       410.02 cm**-1
  12:       467.10 cm**-1
  13:       507.92 cm**-1
  14:       553.67 cm**-1
  15:       564.01 cm**-1
  16:       630.43 cm**-1
  17:       657.05 cm**-1
  18:       720.26 cm**-1
  19:       737.77 cm**-1
  20:       791.12 cm**-1
  21:       876.07 cm**-1
  22:       953.58 cm**-1
  23:       984.95 cm**-1
  24:       992.93 cm**-1
  25:      1011.44 cm**-1
  26:      1015.17 cm**-1
  27:      1036.23 cm**-1
  28:      1058.97 cm**-1
  29:      1108.01 cm**-1
  30:      1136.23 cm**-1
  31:      1165.32 cm**-1
  32:      1198.06 cm**-1
  33:      1324.22 cm**-1
  34:      1374.70 cm**-1
  35:      1386.79 cm**-1
  36:      1430.66 cm**-1
  37:      1480.03 cm**-1
  38:      1538.62 cm**-1
  39:      1657.19 cm**-1
  40:      1685.63 cm**-1
  41:      3179.42 cm**-1
  42:      3181.00 cm**-1
  43:      3206.80 cm**-1
  44:      3217.65 cm**-1
  45:      3227.52 cm**-1
  46:      3919.87 cm**-1
  47:      3923.14 cm**-1

IR SPECTRUM
-----------

 Mode   freq       eps      Int      T**2         TX        TY        TZ
       cm**-1   L/(mol*cm) km/mol    a.u.
----------------------------------------------------------------------------
  6:     44.78   0.000041    0.21  0.000288  ( 0.016866 -0.001236  0.001282)
  7:    129.25   0.000375    1.89  0.000905  ( 0.001819 -0.022556  0.019816)
  8:    163.91   0.001369    6.92  0.002606  ( 0.002404 -0.010684 -0.049858)
  9:    328.70   0.000352    1.78  0.000334  (-0.018181 -0.001840 -0.000322)
 10:    383.39   0.001918    9.69  0.001561  (-0.001109  0.032858 -0.021914)
 11:    410.02   0.000022    0.11  0.000016  ( 0.003085 -0.002275 -0.001307)
 12:    467.10   0.002168   10.96  0.001449  (-0.000815  0.007692  0.037268)
 13:    507.92   0.000230    1.16  0.000141  (-0.011805  0.001279  0.000647)
 14:    553.67   0.000036    0.18  0.000020  (-0.004117 -0.001735 -0.000539)
 15:    564.01   0.041265  208.54  0.022832  ( 0.010540 -0.141462 -0.052050)
 16:    630.43   0.000092    0.46  0.000045  ( 0.000439 -0.006362 -0.002167)
 17:    657.05   0.016646   84.12  0.007906  (-0.006497  0.087824  0.012283)
 18:    720.26   0.012734   64.35  0.005517  (-0.005025  0.073947 -0.004878)
 19:    737.77   0.000373    1.89  0.000158  (-0.012559 -0.000224 -0.000244)
 20:    791.12   0.000529    2.67  0.000209  (-0.001217  0.013048 -0.006087)
 21:    876.07   0.000153    0.78  0.000055  ( 0.007378  0.000472 -0.000111)
 22:    953.58   0.000289    1.46  0.000095  ( 0.001687 -0.005731  0.007679)
 23:    984.95   0.014813   74.86  0.004693  (-0.068324 -0.004298 -0.002538)
 24:    992.93   0.054844  277.16  0.017237  (-0.000725 -0.044165  0.123635)
 25:   1011.44   0.000353    1.78  0.000109  ( 0.010110 -0.000311  0.002544)
 26:   1015.17   0.001661    8.39  0.000511  ( 0.022504  0.001938 -0.000659)
 27:   1036.23   0.000041    0.21  0.000012  ( 0.001444 -0.000829  0.003116)
 28:   1058.97   0.002590   13.09  0.000763  ( 0.027534  0.001652  0.001504)
 29:   1108.01   0.005116   25.85  0.001441  (-0.001949 -0.010099  0.036539)
 30:   1136.23   0.012513   63.24  0.003437  ( 0.058484  0.003797  0.001405)
 31:   1165.32   0.000223    1.13  0.000060  ( 0.000267 -0.001056  0.007646)
 32:   1198.06   0.000051    0.26  0.000013  (-0.003635 -0.000166  0.000330)
 33:   1324.22   0.000194    0.98  0.000046  (-0.000156  0.006538  0.001702)
 34:   1374.70   0.132176  667.96  0.030005  ( 0.172766  0.011838  0.004032)
 35:   1386.79   0.009208   46.53  0.002072  (-0.002054  0.016186 -0.042495)
 36:   1430.66   0.038008  192.08  0.008291  ( 0.001034 -0.037054  0.083166)
 37:   1480.03   0.017787   89.89  0.003750  ( 0.000998  0.013869 -0.059642)
 38:   1538.62   0.003446   17.42  0.000699  ( 0.026381  0.001680  0.000479)
 39:   1657.19   0.000368    1.86  0.000069  (-0.000200  0.002232 -0.008019)
 40:   1685.63   0.005721   28.91  0.001059  (-0.032467 -0.002118 -0.000755)
 41:   3179.42   0.002490   12.59  0.000244  ( 0.011186  0.001279 -0.010848)
 42:   3181.00   0.002333   11.79  0.000229  ( 0.009914  0.000130  0.011425)
 43:   3206.80   0.000138    0.70  0.000013  (-0.003642 -0.000261 -0.000252)
 44:   3217.65   0.003578   18.08  0.000347  ( 0.000677 -0.000318 -0.018613)
 45:   3227.52   0.001544    7.80  0.000149  ( 0.012178  0.000821  0.000538)
 46:   3919.87   0.038557  194.85  0.003070  ( 0.000111  0.022686 -0.050546)
 47:   3923.14   0.001458    7.37  0.000116  (-0.010619 -0.000061 -0.001790)

--------------------------
THERMOCHEMISTRY AT 298.15K
--------------------------

Temperature         ... 298.15 K
Pressure            ... 1.00 atm
Total Mass          ... 121.93 AMU

Throughout the following assumptions are being made:
  (1) The electronic state is orbitally nondegenerate
  (2) There are no thermally accessible electronically excited states
  (3) Hindered rotations indicated by low frequency modes are not
      treated as such but are treated as vibrations and this may
      cause some error
  (4) All equations used are the standard statistical mechanics
      equations for an ideal gas
  (5) All vibrations are strictly harmonic

freq.      44.78  E(vib)   ...       0.53
freq.     129.25  E(vib)   ...       0.43
freq.     163.91  E(vib)   ...       0.39
freq.     328.70  E(vib)   ...       0.24
freq.     383.39  E(vib)   ...       0.20
freq.     410.02  E(vib)   ...       0.19
freq.     467.10  E(vib)   ...       0.16
freq.     507.92  E(vib)   ...       0.14
freq.     553.67  E(vib)   ...       0.12
freq.     564.01  E(vib)   ...       0.11
freq.     630.43  E(vib)   ...       0.09
freq.     657.05  E(vib)   ...       0.08
freq.     720.26  E(vib)   ...       0.07
freq.     737.77  E(vib)   ...       0.06
freq.     791.12  E(vib)   ...       0.05
freq.     876.07  E(vib)   ...       0.04
freq.     953.58  E(vib)   ...       0.03
freq.     984.95  E(vib)   ...       0.02
freq.     992.93  E(vib)   ...       0.02
freq.    1011.44  E(vib)   ...       0.02
freq.    1015.17  E(vib)   ...       0.02
freq.    1036.23  E(vib)   ...       0.02
freq.    1058.97  E(vib)   ...       0.02
freq.    1108.01  E(vib)   ...       0.02
freq.    1136.23  E(vib)   ...       0.01
freq.    1165.32  E(vib)   ...       0.01
freq.    1198.06  E(vib)   ...       0.01
freq.    1324.22  E(vib)   ...       0.01
freq.    1374.70  E(vib)   ...       0.01
freq.    1386.79  E(vib)   ...       0.00
freq.    1430.66  E(vib)   ...       0.00
freq.    1480.03  E(vib)   ...       0.00
freq.    1538.62  E(vib)   ...       0.00
freq.    1657.19  E(vib)   ...       0.00
freq.    1685.63  E(vib)   ...       0.00
freq.    3179.42  E(vib)   ...       0.00
freq.    3181.00  E(vib)   ...       0.00
freq.    3206.80  E(vib)   ...       0.00
freq.    3217.65  E(vib)   ...       0.00
freq.    3227.52  E(vib)   ...       0.00
freq.    3919.87  E(vib)   ...       0.00
freq.    3923.14  E(vib)   ...       0.00

------------
INNER ENERGY
------------

The inner energy is: U= E(el) + E(ZPE) + E(vib) + E(rot) + E(trans)
    E(el)   - is the total energy from the electronic structure calculation
              = E(kin-el) + E(nuc-el) + E(el-el) + E(nuc-nuc)
    E(ZPE)  - the the zero temperature vibrational energy from the frequency calculation
    E(vib)  - the the finite temperature correction to E(ZPE) due to population
              of excited vibrational states
    E(rot)  - is the rotational thermal energy
    E(trans)- is the translational thermal energy

Summary of contributions to the inner energy U:
Electronic energy                ...   -407.54570140 Eh
Zero point energy                ...      0.12611839 Eh      79.14 kcal/mol
Thermal vibrational correction   ...      0.00499263 Eh       3.13 kcal/mol
Thermal rotational correction    ...      0.00141627 Eh       0.89 kcal/mol
Thermal translational correction ...      0.00141627 Eh       0.89 kcal/mol
-----------------------------------------------------------------------
Total thermal energy                   -407.41175783 Eh

Summary of corrections to the electronic energy:
(perhaps to be used in another calculation)
Total thermal correction                  0.00782518 Eh       4.91 kcal/mol
Non-thermal (ZPE) correction              0.12611839 Eh      79.14 kcal/mol
-----------------------------------------------------------------------
Total correction                          0.13394357 Eh      84.05 kcal/mol

--------
ENTHALPY
--------

The enthalpy is H = U + kB*T
                kB is Boltzmann's constant
Total free energy                 ...   -407.41175783 Eh
Thermal Enthalpy correction       ...      0.00094421 Eh       0.59 kcal/mol
-----------------------------------------------------------------------
Total Enthalpy                    ...   -407.41081363 Eh

Note: Only C1 symmetry has been detected, increase convergence thresholds
      if your molecule has a higher symmetry. Symmetry factor of 1.0 is
      used for the rotational entropy correction.

Note: Rotational entropy computed according to Herzberg
Infrared and Raman Spectra, Chapter V,1, Van Nostrand Reinhold, 1945
Point Group:  C1, Symmetry Number:   1
Rotational constants in cm-1:     0.121946     0.037196     0.028970

Vibrational entropy computed according to the QRRHO of S. Grimme
Chem.Eur.J. 2012 18 9955

-------
ENTROPY
-------

The entropy contributions are T*S = T*(S(el)+S(vib)+S(rot)+S(trans))
     S(el)   - electronic entropy
     S(vib)  - vibrational entropy
     S(rot)  - rotational entropy
     S(trans)- translational entropy
The entropies will be listed as multiplied by the temperature to get
units of energy

Electronic entropy                ...      0.00000000 Eh      0.00 kcal/mol
Vibrational entropy               ...      0.00824840 Eh      5.18 kcal/mol
Rotational entropy                ...      0.01372999 Eh      8.62 kcal/mol
Translational entropy             ...      0.01915206 Eh     12.02 kcal/mol
-----------------------------------------------------------------------
Final entropy term                ...      0.04113045 Eh     25.81 kcal/mol

In case the symmetry of your molecule has not been determined correctly
or in case you have a reason to use a different symmetry number we print
out the resulting rotational entropy values for sn=1,12 :
 --------------------------------------------------------
|  sn= 1 | S(rot)=       0.01372999 Eh      8.62 kcal/mol|
|  sn= 2 | S(rot)=       0.01307554 Eh      8.21 kcal/mol|
|  sn= 3 | S(rot)=       0.01269270 Eh      7.96 kcal/mol|
|  sn= 4 | S(rot)=       0.01242108 Eh      7.79 kcal/mol|
|  sn= 5 | S(rot)=       0.01221039 Eh      7.66 kcal/mol|
|  sn= 6 | S(rot)=       0.01203825 Eh      7.55 kcal/mol|
|  sn= 7 | S(rot)=       0.01189270 Eh      7.46 kcal/mol|
|  sn= 8 | S(rot)=       0.01176662 Eh      7.38 kcal/mol|
|  sn= 9 | S(rot)=       0.01165541 Eh      7.31 kcal/mol|
|  sn=10 | S(rot)=       0.01155593 Eh      7.25 kcal/mol|
|  sn=11 | S(rot)=       0.01146594 Eh      7.19 kcal/mol|
|  sn=12 | S(rot)=       0.01138379 Eh      7.14 kcal/mol|
 --------------------------------------------------------

-------------------
GIBBS FREE ENERGY
-------------------

The Gibbs free energy is G = H - T*S

                             ****ORCA TERMINATED NORMALLY****
TOTAL RUN TIME: 0 days 0 hours 27 minutes 5 seconds 991 msec
