                         Program Version 5.0.4 -  RELEASE  -
|  1> ! PBE0 def2-TZVPP D3BJ CPCM printbasis
|  2>
|  3> %cpcm
|  4>   smd true
|  5>   SMDsolvent "BENZENE"
|  6> end
|  7>
|  8> %pal
|  9>   nprocs 4
| 10> end
| 11>
| 12> %maxcore 1500
| 13>
| 14> * xyz 0 1
| 15> H      2.61425    0.18143    3.20847
| 16> C      2.10208    0.10732    2.24590
| 17> C      2.83723    0.11204    1.06061
| 18> H      3.92740    0.18442    1.09192
| 19> C      2.17690    0.02426   -0.16470
| 20> H      2.74833    0.02310   -1.09626
| 21> C      0.78670   -0.06380   -0.19941
| 22> H      0.29357   -0.14138   -1.17421
| 23> C      0.02339   -0.07507    0.97987
| 24> C      0.71279    0.01018    2.20077
| 25> H      0.15862    0.01821    3.14539
| 26> B     -1.54906   -0.17995    0.93604
| 27> O     -2.28150    0.16567   -0.16149
| 28> O     -2.28705   -0.62341    1.99393
| 29> H     -1.76116   -0.91553    2.74245
| 30> H     -1.75996    0.52773   -0.88196
| 31> *
| 32>
| 33>                          ****END OF INPUT****

CARTESIAN COORDINATES (ANGSTROEM)
---------------------------------
  H      2.614250    0.181430    3.208470
  C      2.102080    0.107320    2.245900
  C      2.837230    0.112040    1.060610
  H      3.927400    0.184420    1.091920
  C      2.176900    0.024260   -0.164700
  H      2.748330    0.023100   -1.096260
  C      0.786700   -0.063800   -0.199410
  H      0.293570   -0.141380   -1.174210
  C      0.023390   -0.075070    0.979870
  C      0.712790    0.010180    2.200770
  H      0.158620    0.018210    3.145390
  B     -1.549060   -0.179950    0.936040
  O     -2.281500    0.165670   -0.161490
  O     -2.287050   -0.623410    1.993930
  H     -1.761160   -0.915530    2.742450
  H     -1.759960    0.527730   -0.881960

 Total Charge           Charge          ....    0
 Multiplicity           Mult            ....    1
 Number of Electrons    NEL             ....   64
 Basis Dimension        Dim             ....  377

ORBITAL ENERGIES
----------------

  NO   OCC          E(Eh)            E(eV)
   0   2.0000     -19.211742      -522.7781
   1   2.0000     -19.211684      -522.7765
   2   2.0000     -10.237934      -278.5884
   3   2.0000     -10.237921      -278.5880
   4   2.0000     -10.236728      -278.5555
   5   2.0000     -10.234466      -278.4940
   6   2.0000     -10.234383      -278.4917
   7   2.0000     -10.223251      -278.1888
   8   2.0000      -6.810756      -185.3301
   9   2.0000      -1.063029       -28.9265
  10   2.0000      -1.033678       -28.1278
  11   2.0000      -0.885335       -24.0912
  12   2.0000      -0.774581       -21.0774
  13   2.0000      -0.773358       -21.0442
  14   2.0000      -0.627689       -17.0803
  15   2.0000      -0.626415       -17.0456
  16   2.0000      -0.603955       -16.4345
  17   2.0000      -0.545356       -14.8399
  18   2.0000      -0.505770       -13.7627
  19   2.0000      -0.478787       -13.0285
  20   2.0000      -0.471793       -12.8381
  21   2.0000      -0.452451       -12.3118
  22   2.0000      -0.437627       -11.9084
  23   2.0000      -0.415644       -11.3103
  24   2.0000      -0.396163       -10.7801
  25   2.0000      -0.385363       -10.4863
  26   2.0000      -0.385151       -10.4805
  27   2.0000      -0.356864        -9.7108
  28   2.0000      -0.336962        -9.1692
  29   2.0000      -0.324446        -8.8286
  30   2.0000      -0.275080        -7.4853
  31   2.0000      -0.274825        -7.4784
  32   0.0000      -0.034071        -0.9271
  33   0.0000      -0.016820        -0.4577
  34   0.0000       0.033278         0.9055
  35   0.0000       0.060847         1.6557
  36   0.0000       0.071869         1.9557

MULLIKEN ATOMIC CHARGES
-----------------------
   0 H :    0.143027
   1 C :   -0.166340
   2 C :   -0.112426
   3 H :    0.145050
   4 C :   -0.166329
   5 H :    0.142775
   6 C :   -0.147699
   7 H :    0.109371
   8 C :   -0.026185
   9 C :   -0.147623
  10 H :    0.109334
  11 B :    0.328063
  12 O :   -0.323989
  13 O :   -0.323917
  14 H :    0.218412
  15 H :    0.218474
Sum of atomic charges:    0.0000000

LOEWDIN ATOMIC CHARGES
----------------------
   0 H :    0.027739
   1 C :   -0.018836
   2 C :   -0.012935
   3 H :    0.028491
   4 C :   -0.018850
   5 H :    0.027741
   6 C :    0.003378
   7 H :    0.029324
   8 C :   -0.041501
   9 C :    0.003340
  10 H :    0.029300
  11 B :   -0.783298
  12 O :    0.449684
  13 O :    0.449730
  14 H :   -0.086689
  15 H :   -0.086620

  Mayer bond orders larger than 0.100000
B(  0-H ,  1-C ) :   0.9627 B(  1-C ,  2-C ) :   1.4382 B(  1-C ,  9-C ) :   1.4444
B(  2-C ,  3-H ) :   0.9611 B(  2-C ,  4-C ) :   1.4378 B(  4-C ,  5-H ) :   0.9630
B(  4-C ,  6-C ) :   1.4443 B(  6-C ,  7-H ) :   0.9642 B(  6-C ,  8-C ) :   1.3701
B(  8-C ,  9-C ) :   1.3694 B(  8-C , 11-B ) :   0.9687 B(  9-C , 10-H ) :   0.9642
B( 11-B , 12-O ) :   1.2967 B( 11-B , 13-O ) :   1.2966 B( 12-O , 15-H ) :   0.9784
B( 13-O , 14-H ) :   0.9783

Dispersion correction           -0.013887052
FINAL SINGLE POINT ENERGY      -407.981892283374

DIPOLE MOMENT
-------------
                                X             Y             Z
Electronic contribution:     -4.62545      -0.30864      -0.13282
Nuclear contribution   :      5.97243       0.39856       0.16848
                        -----------------------------------------
Total Dipole Moment    :      1.34698       0.08992       0.03566
                        -----------------------------------------
Magnitude (a.u.)       :      1.35045
Magnitude (Debye)      :      3.43256

Rotational constants in cm-1:     0.121946     0.037196     0.028970
Rotational constants in MHz :  3655.844895  1115.115802   868.488730

                             ****ORCA TERMINATED NORMALLY****
TOTAL RUN TIME: 0 days 0 hours 1 minutes 7 seconds 196 msec
