                         Program Version 5.0.4 -  RELEASE  -
|  1> # SMD for more accurate results
|  2> ! PBE0 D3BJ def2-SVP CPCM printbasis
|  3> ! tightopt
|  4>
|  5> %basis
|  6>   newgto O "def2-SVPD" end
|  7> end
|  8>
|  9> %cpcm
| 10>   smd true
| 11>   SMDsolvent "BENZENE"
| 12> end
| 13>
| 14> %pal
| 15>   nprocs 4
| 16> end
| 17>
| 18> %maxcore 1500
| 19>
| 20> * xyz 0 1
| 21> H      2.54728    0.20956    3.17587
| 22> C      2.00997    0.13565    2.23961
| 23> C      2.70455    0.05380    1.04198
| 24> H      3.78560    0.06317    1.03572
| 25> C      1.99518   -0.04025   -0.14889
| 26> H      2.52488   -0.10482   -1.09020
| 27> C      0.61074   -0.05292   -0.15019
| 28> H      0.05066   -0.12586   -1.07181
| 29> C     -0.07985    0.02949    1.05465
| 30> C      0.62304    0.12396    2.25187
| 31> H      0.08681    0.18851    3.19210
| 32> B     -1.44543    0.01313    1.00059
| 33> O     -1.79061   -0.07203   -0.11408
| 34> O     -1.84870   -0.90398    1.60489
| 35> H     -1.56842   -0.83483    2.50997
| 36> H     -1.46317    0.67263   -0.60476
| 37> *
| 38>
| 39>                          ****END OF INPUT****
 Total Charge           Charge          ....    0
 Multiplicity           Mult            ....    1
 Number of Electrons    NEL             ....   64
Dispersion correction           -0.014588827
FINAL SINGLE POINT ENERGY      -407.312947053389
Dispersion correction            ... done
Dispersion correction           -0.014437157
FINAL SINGLE POINT ENERGY      -407.420971704973
Dispersion correction            ... done
Dispersion correction           -0.014210019
FINAL SINGLE POINT ENERGY      -407.478814479703
Dispersion correction            ... done
FINAL SINGLE POINT ENERGY      -407.506432894086
FINAL SINGLE POINT ENERGY      -407.519880158100
FINAL SINGLE POINT ENERGY      -407.528021748420
FINAL SINGLE POINT ENERGY      -407.534129535423
FINAL SINGLE POINT ENERGY      -407.539061464205
FINAL SINGLE POINT ENERGY      -407.542595588994
FINAL SINGLE POINT ENERGY      -407.544558703637
FINAL SINGLE POINT ENERGY      -407.545698451804
FINAL SINGLE POINT ENERGY      -407.545701331540
FINAL SINGLE POINT ENERGY      -407.545702449398
FINAL SINGLE POINT ENERGY      -407.545702910648
FINAL SINGLE POINT ENERGY      -407.545702902649
FINAL SINGLE POINT ENERGY      -407.545702725803
FINAL SINGLE POINT ENERGY      -407.545702337590
Dispersion correction            ... done
Dispersion correction           -0.013886763
FINAL SINGLE POINT ENERGY      -407.545702060062
Dispersion correction            ... done
Dispersion correction           -0.013886997
FINAL SINGLE POINT ENERGY      -407.545701897196
Dispersion correction            ... done
                    ***********************HURRAY********************

CARTESIAN COORDINATES (ANGSTROEM)
---------------------------------
  H      2.614254    0.181433    3.208470
  C      2.102083    0.107320    2.245900
  C      2.837230    0.112037    1.060613
  H      3.927399    0.184417    1.091917
  C      2.176903    0.024263   -0.164695
  H      2.748330    0.023102   -1.096260
  C      0.786697   -0.063803   -0.199406
  H      0.293566   -0.141382   -1.174208
  C      0.023386   -0.075074    0.979868
  C      0.712794    0.010181    2.200773
  H      0.158616    0.018209    3.145388
  B     -1.549063   -0.179948    0.936035
  O     -2.281498    0.165671   -0.161495
  O     -2.287046   -0.623414    1.993925
  H     -1.761160   -0.915527    2.742450
  H     -1.759960    0.527726   -0.881956

 Multiplicity           Mult            ....    1
 Number of Electrons    NEL             ....   64
 Basis Dimension        Dim             ....  179

ORBITAL ENERGIES
----------------

  NO   OCC          E(Eh)            E(eV)
   0   2.0000     -19.224174      -523.1164
   1   2.0000     -19.224048      -523.1129
   2   2.0000     -10.248744      -278.8825
   3   2.0000     -10.248717      -278.8818
   4   2.0000     -10.247250      -278.8418
   5   2.0000     -10.244932      -278.7788
   6   2.0000     -10.244906      -278.7781
   7   2.0000     -10.232491      -278.4402
   8   2.0000      -6.825021      -185.7183
   9   2.0000      -1.053288       -28.6614
  10   2.0000      -1.023796       -27.8589
  11   2.0000      -0.879481       -23.9319
  12   2.0000      -0.767929       -20.8964
  13   2.0000      -0.767043       -20.8723
  14   2.0000      -0.623944       -16.9784
  15   2.0000      -0.622248       -16.9322
  16   2.0000      -0.607303       -16.5256
  17   2.0000      -0.545421       -14.8417
  18   2.0000      -0.510972       -13.9042
  19   2.0000      -0.475761       -12.9461
  20   2.0000      -0.474116       -12.9014
  21   2.0000      -0.453052       -12.3282
  22   2.0000      -0.438960       -11.9447
  23   2.0000      -0.417880       -11.3711
  24   2.0000      -0.398308       -10.8385
  25   2.0000      -0.387038       -10.5318
  26   2.0000      -0.386213       -10.5094
  27   2.0000      -0.358520        -9.7558
  28   2.0000      -0.340191        -9.2571
  29   2.0000      -0.327429        -8.9098
  30   2.0000      -0.275791        -7.5047
  31   2.0000      -0.275753        -7.5036
  32   0.0000      -0.032826        -0.8932
  33   0.0000      -0.013656        -0.3716
  34   0.0000       0.040833         1.1111
  35   0.0000       0.051795         1.4094
  36   0.0000       0.084173         2.2905

MULLIKEN ATOMIC CHARGES
-----------------------
   0 H :    0.037227
   1 C :   -0.020736
   2 C :   -0.026844
   3 H :    0.041864
   4 C :   -0.020832
   5 H :    0.037292
   6 C :   -0.081877
   7 H :    0.040950
   8 C :   -0.032935
   9 C :   -0.082130
  10 H :    0.041064
  11 B :    0.618191
  12 O :   -0.434640
  13 O :   -0.434326
  14 H :    0.158789
  15 H :    0.158945
Sum of atomic charges:   -0.0000000

LOEWDIN ATOMIC CHARGES
----------------------
   0 H :    0.041083
   1 C :   -0.033548
   2 C :   -0.023475
   3 H :    0.041758
   4 C :   -0.033538
   5 H :    0.041099
   6 C :    0.001645
   7 H :    0.050776
   8 C :    0.033587
   9 C :    0.001804
  10 H :    0.050900
  11 B :    0.247716
  12 O :   -0.380863
  13 O :   -0.381280
  14 H :    0.171118
  15 H :    0.171217

  Mayer bond orders larger than 0.100000
B(  0-H ,  1-C ) :   0.9879 B(  1-C ,  2-C ) :   1.3834 B(  1-C ,  9-C ) :   1.3958
B(  2-C ,  3-H ) :   0.9869 B(  2-C ,  4-C ) :   1.3834 B(  4-C ,  5-H ) :   0.9879
B(  4-C ,  6-C ) :   1.3957 B(  6-C ,  7-H ) :   0.9812 B(  6-C ,  8-C ) :   1.3486
B(  8-C ,  9-C ) :   1.3485 B(  8-C , 11-B ) :   0.8560 B(  9-C , 10-H ) :   0.9811
B( 11-B , 12-O ) :   1.1076 B( 11-B , 13-O ) :   1.1082 B( 12-O , 15-H ) :   0.9804
B( 13-O , 14-H ) :   0.9803

Dispersion correction           -0.013887053
FINAL SINGLE POINT ENERGY      -407.545701408527

DIPOLE MOMENT
-------------
                                X             Y             Z
Electronic contribution:     -4.55157      -0.30373      -0.13075
Nuclear contribution   :      5.97242       0.39856       0.16848
                        -----------------------------------------
Total Dipole Moment    :      1.42084       0.09483       0.03773
                        -----------------------------------------
Magnitude (a.u.)       :      1.42450
Magnitude (Debye)      :      3.62080

Rotational constants in cm-1:     0.121946     0.037196     0.028970
Rotational constants in MHz :  3655.848252  1115.115711   868.488998

                             ****ORCA TERMINATED NORMALLY****
TOTAL RUN TIME: 0 days 0 hours 15 minutes 35 seconds 636 msec
