                         Program Version 5.0.4 -  RELEASE  -
|  1> # CsHCO3 is part of the proposed mechanism - see computational notebook for full details
|  2> ! PBE0 D3BJ printbasis
|  3> ! opt
|  4>
|  5> %basis
|  6>   newgto C "6-31G*" end
|  7>   newgto H "6-31G*" end
|  8>   newgto O "6-31+G*" end
|  9>   newgto Cs "def2-SVPD" end
| 10> NewECP CS
| 11>   N_core 46
| 12>   lmax f
| 13>   s 3
| 14>    1      4.0797500     84.5477300 2
| 15>    2      2.4174060     16.6541730 2
| 16>    3      3.1232690     28.8843090 2
| 17>   p 3
| 18>    1      5.5140800    157.0490590 2
| 19>    2      2.1603160     26.4233070 2
| 20>    3      3.1232690     28.8843090 2
| 21>   d 3
| 22>    1      1.8074100     13.1727530 2
| 23>    2      0.8581820      3.3428330 2
| 24>    3      3.1232690     28.8843090 2
| 25>   f 1
| 26>    1      3.1232690    -28.8843090 2
| 27> end
| 28> end
| 29>
| 30> %pal
| 31>   nprocs 4
| 32> end
| 33>
| 34> %maxcore 1500
| 35>
| 36> * xyz 0 1
| 37> C     -5.21645    4.48529   -0.24910
| 38> O     -5.24857    5.57529    0.33884
| 39> O     -5.64946    3.30122    0.55173
| 40> O     -4.54222    4.33643   -1.32748
| 41> Cs    -5.99987    5.74148    2.90248
| 42> H     -4.22811    5.45965   -1.56162
| 43> *
| 44>
| 45>                          ****END OF INPUT****
 Total Charge           Charge          ....    0
 Multiplicity           Mult            ....    1
 Number of Electrons    NEL             ....   40
Dispersion correction           -0.002985920
FINAL SINGLE POINT ENERGY      -284.271837943327
Dispersion correction            ... done
Dispersion correction           -0.002964766
FINAL SINGLE POINT ENERGY      -284.318923592634
Dispersion correction            ... done
Dispersion correction           -0.002971029
FINAL SINGLE POINT ENERGY      -284.349699755058
Dispersion correction            ... done
FINAL SINGLE POINT ENERGY      -284.357264619411
FINAL SINGLE POINT ENERGY      -284.360214882048
FINAL SINGLE POINT ENERGY      -284.362682702909
FINAL SINGLE POINT ENERGY      -284.364427123556
FINAL SINGLE POINT ENERGY      -284.365397823482
FINAL SINGLE POINT ENERGY      -284.365435328386
FINAL SINGLE POINT ENERGY      -284.365462221671
FINAL SINGLE POINT ENERGY      -284.365490046275
FINAL SINGLE POINT ENERGY      -284.365535086493
FINAL SINGLE POINT ENERGY      -284.365580478504
FINAL SINGLE POINT ENERGY      -284.365405198019
FINAL SINGLE POINT ENERGY      -284.365283101444
FINAL SINGLE POINT ENERGY      -284.365431224277
Dispersion correction            ... done
Dispersion correction           -0.003026363
FINAL SINGLE POINT ENERGY      -284.365409935990
Dispersion correction            ... done
Dispersion correction           -0.003026475
FINAL SINGLE POINT ENERGY      -284.365392527827
Dispersion correction            ... done
                    ***********************HURRAY********************

CARTESIAN COORDINATES (ANGSTROEM)
---------------------------------
  C     -5.060288    4.609136   -0.037225
  O     -4.942457    5.819786    0.313107
  O     -5.469886    3.656359    0.662742
  O     -4.713612    4.309825   -1.327437
  Cs    -6.268490    5.353140    2.759981
  H     -4.429947    5.151113   -1.716317

 Multiplicity           Mult            ....    1
 Number of Electrons    NEL             ....   40
 Basis Dimension        Dim             ....   97

ORBITAL ENERGIES
----------------

  NO   OCC          E(Eh)            E(eV)
   0   2.0000     -19.209367      -522.7134
   1   2.0000     -19.149683      -521.0894
   2   2.0000     -19.146172      -520.9938
   3   2.0000     -10.335243      -281.2363
   4   2.0000      -1.094098       -29.7719
   5   2.0000      -1.071703       -29.1625
   6   2.0000      -0.988361       -26.8947
   7   2.0000      -0.951994       -25.9051
   8   2.0000      -0.577239       -15.7075
   9   2.0000      -0.547205       -14.8902
  10   2.0000      -0.544618       -14.8198
  11   2.0000      -0.533748       -14.5240
  12   2.0000      -0.456003       -12.4085
  13   2.0000      -0.428500       -11.6601
  14   2.0000      -0.422731       -11.5031
  15   2.0000      -0.367495       -10.0000
  16   2.0000      -0.287383        -7.8201
  17   2.0000      -0.266576        -7.2539
  18   2.0000      -0.248460        -6.7609
  19   2.0000      -0.230008        -6.2588
  20   0.0000      -0.036284        -0.9873
  21   0.0000       0.000447         0.0122
  22   0.0000       0.001787         0.0486
  23   0.0000       0.005057         0.1376
  24   0.0000       0.014687         0.3996

MULLIKEN ATOMIC CHARGES
-----------------------
   0 C :    0.817543
   1 O :   -0.739000
   2 O :   -0.706161
   3 O :   -0.693320
   4 Cs:    0.835125
   5 H :    0.485813
Sum of atomic charges:   -0.0000000

LOEWDIN ATOMIC CHARGES
----------------------
   0 C :    0.408664
   1 O :   -0.608183
   2 O :   -0.560980
   3 O :   -0.495135
   4 Cs:    0.855623
   5 H :    0.400011

  Mayer bond orders larger than 0.100000
B(  0-C ,  1-O ) :   1.4017 B(  0-C ,  2-O ) :   1.4634 B(  0-C ,  3-O ) :   0.9334
B(  1-O ,  4-Cs) :   0.1224 B(  2-O ,  4-Cs) :   0.1339 B(  3-O ,  5-H ) :   0.6856

Dispersion correction           -0.003026426
FINAL SINGLE POINT ENERGY      -284.365393213374

DIPOLE MOMENT
-------------
                                X             Y             Z
Electronic contribution:    -44.83074      26.85483     105.02757
Nuclear contribution   :     43.47413     -25.44659    -101.98112
                        -----------------------------------------
Total Dipole Moment    :     -1.35661       1.40824       3.04644
                        -----------------------------------------
Magnitude (a.u.)       :      3.62000
Magnitude (Debye)      :      9.20130

Rotational constants in cm-1:     0.399723     0.035283     0.032508
Rotational constants in MHz : 11983.398814  1057.761661   974.572471

                             ****ORCA TERMINATED NORMALLY****
TOTAL RUN TIME: 0 days 0 hours 5 minutes 58 seconds 853 msec
