 Gaussian 16, Revision C.01,
 Gaussian 16:  ES64L-G16RevC.01  3-Jul-2019

 -------------------------------------------
 #P B3LYP/Def2TZVP EmpiricalDispersion=GD3BJ
 -------------------------------------------

 -----
 water
 -----
 Symbolic Z-matrix:
 Charge =  0 Multiplicity = 1

                         Standard orientation:
 ---------------------------------------------------------------------
 Center     Atomic      Atomic             Coordinates (Angstroms)
 Number     Number       Type             X           Y           Z
 ---------------------------------------------------------------------
      1          8           0        0.000000    0.000000    0.120234
      2          1           0        0.000000    0.757025   -0.480936
      3          1           0       -0.000000   -0.757025   -0.480936
 ---------------------------------------------------------------------

 SCF Done:  E(RB3LYP) =  -76.4634462707     A.U. after    9 cycles

 The electronic state is 1-A1.
 Alpha  occ. eigenvalues --  -19.12900  -1.01400  -0.53009  -0.39431  -0.31657
 Alpha virt. eigenvalues --    0.01263   0.08839   0.35198   0.40749   0.42444
 Alpha virt. eigenvalues --    0.43448   0.56678   0.59541   1.14867   1.18852
 Alpha virt. eigenvalues --    1.28699   1.52213   1.63561   1.75182   1.97851

 Mulliken charges:
               1
     1  O   -0.627237
     2  H    0.313618
     3  H    0.313618
 Sum of Mulliken charges =  -0.00000

 Dipole moment (field-independent basis, Debye):
    X=             -0.0000    Y=             -0.0000    Z=             -2.0984  Tot=              2.0984
 Quadrupole moment (field-independent basis, Debye-Ang):
   XX=             -7.5913   YY=             -4.4355   ZZ=             -6.2747
   XY=              0.0000   XZ=              0.0000   YZ=             -0.0000

 Normal termination of Gaussian 16 at Mon Mar 24 14:05:36 2025.
