 Gaussian 16, Revision C.01,
 Gaussian 16:  ES64L-G16RevC.01  3-Jul-2019

 ----------------------------------------------
 #P B3LYP/Def2SVP EmpiricalDispersion=GD3BJ Opt
 ----------------------------------------------

 -----
 water
 -----
 Symbolic Z-matrix:
 Charge =  0 Multiplicity = 1

 SCF Done:  E(RB3LYP) =  -76.3588562444     A.U. after    9 cycles
 SCF Done:  E(RB3LYP) =  -76.3588890328     A.U. after    6 cycles
 SCF Done:  E(RB3LYP) =  -76.3588896845     A.U. after    6 cycles
 Optimization completed.
    -- Stationary point found.

                         Standard orientation:
 ---------------------------------------------------------------------
 Center     Atomic      Atomic             Coordinates (Angstroms)
 Number     Number       Type             X           Y           Z
 ---------------------------------------------------------------------
      1          8           0        0.000000    0.120234   -0.000000
      2          1           0        0.757025   -0.480936    0.000000
      3          1           0       -0.757025   -0.480936   -0.000000
 ---------------------------------------------------------------------

 The electronic state is 1-A'.
 Alpha  occ. eigenvalues --  -19.11966  -0.97980  -0.51161  -0.36791  -0.29167
 Alpha virt. eigenvalues --    0.04480   0.12389   0.55509   0.62051   0.91734
 Alpha virt. eigenvalues --    0.92035   1.00686   1.09514   1.34768   1.39537
 Alpha virt. eigenvalues --    1.54218   1.78667   2.19879   2.24598   2.96049

 Mulliken charges:
               1
     1  O   -0.294496
     2  H    0.147248
     3  H    0.147248
 Sum of Mulliken charges =   0.00000

 Dipole moment (field-independent basis, Debye):
    X=              0.0000    Y=             -2.0046    Z=              0.0000  Tot=              2.0046
 Quadrupole moment (field-independent basis, Debye-Ang):
   XX=             -4.3525   YY=             -5.9371   ZZ=             -7.0031
   XY=              0.0000   XZ=             -0.0000   YZ=             -0.0000

 Normal termination of Gaussian 16 at Mon Mar 24 13:50:34 2025.
